[Molden Format]
[Atoms] Angs
Li   1  3     0.000000     0.000000    -0.202551
H    2  1     0.000000     0.000000     1.392348
[GTO]
  1 0
 s    6 1.00
  0.6424189150D+03  0.2142607810D-02
  0.9679851530D+02  0.1620887150D-01
  0.2209112120D+02  0.7731557250D-01
  0.6201070200D+01  0.2457860520D+00
  0.1935117700D+01  0.4701890040D+00
  0.6367358000D+00  0.3454708450D+00
 sp   3 1.00
  0.2324918400D+01 -0.3509174573D-01  0.8941508043D-02
  0.6324304000D+00 -0.1912328431D+00  0.1410094640D+00
  0.7905340000D-01  0.1083987795D+01  0.9453636953D+00
 sp   1 1.00
  0.3596200000D-01  0.1000000000D+01  0.1000000000D+01
 d    1 1.00
  0.2000000000D+00  0.1000000000D+01
  
  2 0
 s    3 1.00
  0.1873113700D+02  0.3349460434D-01
  0.2825394400D+01  0.2347269535D+00
  0.6401217000D+00  0.8137573261D+00
 s    1 1.00
  0.1612778000D+00  0.1000000000D+01
 p    1 1.00
  0.1100000000D+01  0.1000000000D+01
 

[MO]
 Sym = A
 Ene=    -2.4496
 Spin= Alpha
 Occup=   2.000000
1   0.998454
2   0.014265
3   0.000000
4   0.000000
5  -0.012095
6  -0.008308
7   0.000000
8   0.000000
9   0.006042
10   0.001049
11   0.001049
12  -0.002098
13   0.000000
14   0.000000
15   0.000000
16   0.003043
17   0.006166
18   0.000000
19   0.000000
20  -0.001435
 Sym = A
 Ene=    -0.3001
 Spin= Alpha
 Occup=   2.000000
1  -0.130078
2   0.229992
3   0.000000
4   0.000000
5   0.250881
6   0.157251
7   0.000000
8   0.000000
9  -0.002762
10  -0.017160
11  -0.017160
12   0.034320
13   0.000000
14   0.000000
15   0.000000
16   0.290357
17   0.396840
18   0.000000
19   0.000000
20  -0.010672
 Sym = A
 Ene=     0.0095
 Spin= Alpha
 Occup=   0.000000
1  -0.137984
2  -0.146203
3  -0.000000
4  -0.000000
5  -0.174312
6   0.894428
7  -0.000000
8  -0.000000
9  -0.499771
10  -0.006615
11  -0.006615
12   0.013229
13  -0.000000
14  -0.000000
15  -0.000000
16  -0.057014
17  -0.081190
18  -0.000000
19  -0.000000
20   0.002280
 Sym = A
 Ene=     0.0602
 Spin= Alpha
 Occup=   0.000000
1   0.000000
2   0.000000
3   0.012988
4  -0.002396
5   0.000000
6   0.000000
7   0.972327
8  -0.179340
9   0.000000
10   0.000000
11   0.000000
12   0.000000
13   0.000000
14  -0.027245
15   0.005025
16   0.000000
17   0.000000
18   0.005186
19  -0.000956
20   0.000000
 Sym = A
 Ene=     0.0602
 Spin= Alpha
 Occup=   0.000000
1   0.000000
2   0.000000
3   0.002396
4   0.012988
5   0.000000
6   0.000000
7   0.179340
8   0.972327
9   0.000000
10   0.000000
11   0.000000
12   0.000000
13   0.000000
14  -0.005025
15  -0.027245
16   0.000000
17   0.000000
18   0.000956
19   0.005186
20   0.000000
 Sym = A
 Ene=     0.1445
 Spin= Alpha
 Occup=   0.000000
1  -0.045082
2  -0.094940
3   0.000000
4   0.000000
5  -0.644317
6   0.750559
7   0.000000
8   0.000000
9   1.370230
10  -0.014313
11  -0.014313
12   0.028626
13   0.000000
14   0.000000
15   0.000000
16  -0.092990
17  -0.592600
18   0.000000
19   0.000000
20   0.010935
 Sym = A
 Ene=     0.2006
 Spin= Alpha
 Occup=   0.000000
1  -0.038561
2  -1.920107
3   0.000000
4   0.000000
5   0.930119
6   1.956622
7   0.000000
8   0.000000
9  -0.517215
10   0.014724
11   0.014724
12  -0.029448
13   0.000000
14   0.000000
15   0.000000
16   0.009925
17  -0.277662
18   0.000000
19   0.000000
20  -0.009873
 Sym = A
 Ene=     0.2217
 Spin= Alpha
 Occup=   0.000000
1  -0.000000
2  -0.000000
3   1.560964
4  -0.592077
5  -0.000000
6  -0.000000
7  -1.261830
8   0.478615
9  -0.000000
10  -0.000000
11  -0.000000
12  -0.000000
13  -0.000000
14  -0.063520
15   0.024093
16  -0.000000
17  -0.000000
18   0.007787
19  -0.002954
20  -0.000000
 Sym = A
 Ene=     0.2217
 Spin= Alpha
 Occup=   0.000000
1  -0.000000
2  -0.000000
3   0.592077
4   1.560964
5  -0.000000
6  -0.000000
7  -0.478615
8  -1.261830
9  -0.000000
10  -0.000000
11  -0.000000
12  -0.000000
13  -0.000000
14  -0.024093
15  -0.063520
16  -0.000000
17  -0.000000
18   0.002954
19   0.007787
20  -0.000000
 Sym = A
 Ene=     0.3515
 Spin= Alpha
 Occup=   0.000000
1   0.062401
2   1.513282
3  -0.000000
4  -0.000000
5   1.518302
6  -0.658610
7  -0.000000
8  -0.000000
9  -0.590433
10   0.110954
11   0.110954
12  -0.221909
13  -0.000000
14  -0.000000
15  -0.000000
16  -0.076469
17  -1.164005
18  -0.000000
19  -0.000000
20  -0.022108
 Sym = A
 Ene=     0.5723
 Spin= Alpha
 Occup=   0.000000
1   0.000000
2   0.000000
3   0.108215
4   0.008148
5   0.000000
6   0.000000
7  -0.061961
8  -0.004665
9   0.000000
10   0.000000
11   0.000000
12   0.000000
13   0.000000
14   0.990593
15   0.074589
16   0.000000
17   0.000000
18   0.018013
19   0.001356
20   0.000000
 Sym = A
 Ene=     0.5723
 Spin= Alpha
 Occup=   0.000000
   1  -0.000000
   2  -0.000000
   3  -0.008148
   4   0.108215
   5  -0.000000
   6  -0.000000
   7   0.004665
   8  -0.061961
   9  -0.000000
  10  -0.000000
  11  -0.000000
  12  -0.000000
  13  -0.000000
  14  -0.074589
  15   0.990593
  16  -0.000000
  17  -0.000000
  18  -0.001356
  19   0.018013
  20  -0.000000
 Sym = A
 Ene=     0.5802
 Spin= Alpha
 Occup=   0.000000
   1   0.000000
   2   0.000000
   3   0.000000
   4   0.000000
   5   0.000000
   6   0.000000
   7   0.000000
   8   0.000000
   9   0.000000
  10   0.047469
  11  -0.047469
  12   0.000000
  13   0.998497
  14   0.000000
  15   0.000000
  16   0.000000
  17   0.000000
  18   0.000000
  19   0.000000
  20   0.000000
 Sym = A
 Ene=     0.5802
 Spin= Alpha
 Occup=   0.000000
   1  -0.000000
   2  -0.000000
   3  -0.000000
   4  -0.000000
   5  -0.000000
   6  -0.000000
   7  -0.000000
   8  -0.000000
   9  -0.000000
  10  -0.864723
  11   0.864723
  12  -0.000000
  13   0.054813
  14  -0.000000
  15  -0.000000
  16  -0.000000
  17  -0.000000
  18  -0.000000
  19  -0.000000
  20  -0.000000
 Sym = A
 Ene=     0.7756
 Spin= Alpha
 Occup=   0.000000
   1  -0.132183
   2  -1.235151
   3   0.000000
   4   0.000000
   5  -1.606105
   6   0.000892
   7   0.000000
   8   0.000000
   9   0.224802
  10   0.687694
  11   0.687694
  12  -1.375387
  13   0.000000
  14   0.000000
  15   0.000000
  16  -0.114239
  17   2.291614
  18   0.000000
  19   0.000000
  20  -0.005214
 Sym = A
 Ene=     1.3430
 Spin= Alpha
 Occup=   0.000000
   1   0.093008
   2   0.091745
   3   0.000000
   4   0.000000
   5   0.012325
   6   0.251204
   7   0.000000
   8   0.000000
   9   0.260168
  10   0.150168
  11   0.150168
  12  -0.300336
  13   0.000000
  14   0.000000
  15   0.000000
  16   1.401735
  17  -1.345424
  18   0.000000
  19   0.000000
  20  -0.026334
 Sym = A
 Ene=     2.5751
 Spin= Alpha
 Occup=   0.000000
   1  -0.000000
   2  -0.000000
   3  -0.148820
   4  -0.017166
   5  -0.000000
   6  -0.000000
   7   0.059846
   8   0.006903
   9  -0.000000
  10  -0.000000
  11  -0.000000
  12  -0.000000
  13  -0.000000
  14  -0.238438
  15  -0.027504
  16  -0.000000
  17  -0.000000
  18   1.022203
  19   0.117911
  20  -0.000000
 Sym = A
 Ene=     2.5751
 Spin= Alpha
 Occup=   0.000000
   1   0.000000
   2   0.000000
   3   0.017166
   4  -0.148820
   5   0.000000
   6   0.000000
   7  -0.006903
   8   0.059846
   9   0.000000
  10   0.000000
  11   0.000000
  12   0.000000
  13   0.000000
  14   0.027504
  15  -0.238438
  16   0.000000
  17   0.000000
  18  -0.117911
  19   1.022203
  20   0.000000
 Sym = A
 Ene=     2.7535
 Spin= Alpha
 Occup=   0.000000
   1   0.083583
   2   0.816010
   3   0.000000
   4   0.000000
   5   0.937740
   6  -0.182255
   7   0.000000
   8   0.000000
   9  -0.272795
  10  -0.248365
  11  -0.248365
  12   0.496731
  13   0.000000
  14   0.000000
  15   0.000000
  16   0.045890
  17  -1.050352
  18   0.000000
  19   0.000000
  20   1.089700
[SCFCONV]
scf-first    1 THROUGH    8
     -7.884968
     -7.974774
     -7.980116
     -7.981114
     -7.981134
     -7.981134
     -7.981134
     -7.981134
